[Molden Format]
[Atoms] Angs
H     1    1         1.1732090000       -1.7357630000        0.0000000000
H     2    1         2.0358410000       -0.2262010000        0.0000000000
H     3    1        -2.1211890000       -0.1560890000        0.0000000000
H     4    1        -1.3106470000       -1.4727420000        0.8855040000
H     5    1        -1.3106470000       -1.4727420000       -0.8855040000
C     6    6         0.0000000000        0.0000000000        0.0000000000
C     7    6        -1.2670420000       -0.8316100000        0.0000000000
O     8    8         0.0000000000        1.2294390000        0.0000000000
N     9    7         1.1589670000       -0.7277180000        0.0000000000
[GTO]
  1 0
  s 3 1.00
  0.3406134100d+02 0.2543930721d-01
  0.5123574600d+01 0.1900859489d+00
  0.1164662600d+01 0.8524411301d+00
  s 1 1.00
  0.3272304100d+00 0.1000000000d+01
  s 1 1.00
  0.1030724100d+00 0.1000000000d+01
  p 1 1.00
  0.8000000000d+00 0.1000000000d+01
 
  2 0
  s 3 1.00
  0.3406134100d+02 0.2543930721d-01
  0.5123574600d+01 0.1900859489d+00
  0.1164662600d+01 0.8524411301d+00
  s 1 1.00
  0.3272304100d+00 0.1000000000d+01
  s 1 1.00
  0.1030724100d+00 0.1000000000d+01
  p 1 1.00
  0.8000000000d+00 0.1000000000d+01
 
  3 0
  s 3 1.00
  0.3406134100d+02 0.2543930721d-01
  0.5123574600d+01 0.1900859489d+00
  0.1164662600d+01 0.8524411301d+00
  s 1 1.00
  0.3272304100d+00 0.1000000000d+01
  s 1 1.00
  0.1030724100d+00 0.1000000000d+01
  p 1 1.00
  0.8000000000d+00 0.1000000000d+01
 
  4 0
  s 3 1.00
  0.3406134100d+02 0.2543930721d-01
  0.5123574600d+01 0.1900859489d+00
  0.1164662600d+01 0.8524411301d+00
  s 1 1.00
  0.3272304100d+00 0.1000000000d+01
  s 1 1.00
  0.1030724100d+00 0.1000000000d+01
  p 1 1.00
  0.8000000000d+00 0.1000000000d+01
 
  5 0
  s 3 1.00
  0.3406134100d+02 0.2543930721d-01
  0.5123574600d+01 0.1900859489d+00
  0.1164662600d+01 0.8524411301d+00
  s 1 1.00
  0.3272304100d+00 0.1000000000d+01
  s 1 1.00
  0.1030724100d+00 0.1000000000d+01
  p 1 1.00
  0.8000000000d+00 0.1000000000d+01
 
  6 0
  s 6 1.00
  0.1357534968d+05 0.6064550360d-03
  0.2035233368d+04 0.4697908888d-02
  0.4632256236d+03 0.2433247765d-01
  0.1312001960d+03 0.9739996831d-01
  0.4285301589d+02 0.3019558425d+00
  0.1558418577d+02 0.6623360914d+00
  s 2 1.00
  0.6206713851d+01 0.6559530854d+00
  0.2576489653d+01 0.3758563329d+00
  s 1 1.00
  0.5769633942d+00 0.1000000000d+01
  s 1 1.00
  0.2297283136d+00 0.1000000000d+01
  s 1 1.00
  0.9516444003d-01 0.1000000000d+01
  p 4 1.00
  0.3469723224d+02 0.1132722000d-01
  0.7958262283d+01 0.7616965920d-01
  0.2378082688d+01 0.3019225220d+00
  0.8143320818d+00 0.7278502735d+00
  p 1 1.00
  0.2888754725d+00 0.1000000000d+01
  p 1 1.00
  0.1005682367d+00 0.1000000000d+01
  d 1 1.00
  0.1097000000d+01 0.1000000000d+01
  d 1 1.00
  0.3180000000d+00 0.1000000000d+01
  f 1 1.00
  0.7610000000d+00 0.1000000000d+01
 
  7 0
  s 6 1.00
  0.1357534968d+05 0.6064550360d-03
  0.2035233368d+04 0.4697908888d-02
  0.4632256236d+03 0.2433247765d-01
  0.1312001960d+03 0.9739996831d-01
  0.4285301589d+02 0.3019558425d+00
  0.1558418577d+02 0.6623360914d+00
  s 2 1.00
  0.6206713851d+01 0.6559530854d+00
  0.2576489653d+01 0.3758563329d+00
  s 1 1.00
  0.5769633942d+00 0.1000000000d+01
  s 1 1.00
  0.2297283136d+00 0.1000000000d+01
  s 1 1.00
  0.9516444003d-01 0.1000000000d+01
  p 4 1.00
  0.3469723224d+02 0.1132722000d-01
  0.7958262283d+01 0.7616965920d-01
  0.2378082688d+01 0.3019225220d+00
  0.8143320818d+00 0.7278502735d+00
  p 1 1.00
  0.2888754725d+00 0.1000000000d+01
  p 1 1.00
  0.1005682367d+00 0.1000000000d+01
  d 1 1.00
  0.1097000000d+01 0.1000000000d+01
  d 1 1.00
  0.3180000000d+00 0.1000000000d+01
  f 1 1.00
  0.7610000000d+00 0.1000000000d+01
 
  8 0
  s 6 1.00
  0.2703238263d+05 0.5722733521d-03
  0.4052387139d+04 0.4435323349d-02
  0.9223272271d+03 0.2302010771d-01
  0.2612407099d+03 0.9282249067d-01
  0.8535464135d+02 0.2937850001d+00
  0.3103503524d+02 0.6740160450d+00
  s 2 1.00
  0.1226086073d+02 0.6383993703d+00
  0.4998707601d+01 0.3953458713d+00
  s 1 1.00
  0.1170310816d+01 0.1000000000d+01
  s 1 1.00
  0.4647474099d+00 0.1000000000d+01
  s 1 1.00
  0.1850453636d+00 0.1000000000d+01
  p 4 1.00
  0.6327495480d+02 0.1201833222d-01
  0.1462704938d+02 0.8300542179d-01
  0.4450122346d+01 0.3199174393d+00
  0.1527579965d+01 0.7071554292d+00
  p 1 1.00
  0.5293511794d+00 0.1000000000d+01
  p 1 1.00
  0.1747842127d+00 0.1000000000d+01
  d 1 1.00
  0.2314000000d+01 0.1000000000d+01
  d 1 1.00
  0.6450000000d+00 0.1000000000d+01
  f 1 1.00
  0.1428000000d+01 0.1000000000d+01
 
  9 0
  s 6 1.00
  0.1973080065d+05 0.5862640263d-03
  0.2957895874d+04 0.4542882059d-02
  0.6732213360d+03 0.2355841345d-01
  0.1906824949d+03 0.9470919329d-01
  0.6229544190d+02 0.2971978491d+00
  0.2265416118d+02 0.6691624690d+00
  s 2 1.00
  0.8979147743d+01 0.6459668363d+00
  0.3686300237d+01 0.3870057439d+00
  s 1 1.00
  0.8466007680d+00 0.1000000000d+01
  s 1 1.00
  0.3364713377d+00 0.1000000000d+01
  s 1 1.00
  0.1364765367d+00 0.1000000000d+01
  p 4 1.00
  0.4920038051d+02 0.1144882510d-01
  0.1134679054d+02 0.7842233797d-01
  0.3427397241d+01 0.3081809474d+00
  0.1178552513d+01 0.7202719637d+00
  p 1 1.00
  0.4164220497d+00 0.1000000000d+01
  p 1 1.00
  0.1426082601d+00 0.1000000000d+01
  d 1 1.00
  0.1654000000d+01 0.1000000000d+01
  d 1 1.00
  0.4690000000d+00 0.1000000000d+01
  f 1 1.00
  0.1093000000d+01 0.1000000000d+01
 
[MO]
 Sym=            1
 Ene=   -19.0945600000000     
 Spin= Alpha
 Occup=    2.000000    
     1        0.0000200000
     2        0.0002800000
     3        0.0000100000
     4       -0.0000100000
     5        0.0000500000
     6        0.0000000000
     7        0.0000300000
     8       -0.0001400000
     9       -0.0000300000
    10        0.0000100000
    11        0.0000100000
    12        0.0000000000
    13        0.0000100000
    14        0.0001000000
    15       -0.0000200000
    16        0.0000000000
    17       -0.0000100000
    18        0.0000000000
    19       -0.0000100000
    20       -0.0001400000
    21        0.0000500000
    22        0.0000000000
    23       -0.0000300000
    24        0.0000200000
    25       -0.0000100000
    26       -0.0001400000
    27        0.0000500000
    28        0.0000000000
    29       -0.0000300000
    30       -0.0000200000
    31        0.0000000000
    32       -0.0000100000
    33       -0.0013500000
    34        0.0046400000
    35       -0.0002300000
    36        0.0000000000
    37        0.0002500000
    38        0.0000000000
    39        0.0000700000
    40        0.0014200000
    41        0.0000000000
    42       -0.0000100000
    43       -0.0016500000
    44        0.0000000000
    45       -0.0000600000
    46        0.0002900000
    47       -0.0000700000
    48        0.0000000000
    49        0.0000000000
    50        0.0000000000
    51       -0.0013400000
    52        0.0006300000
    53       -0.0011500000
    54       -0.0000400000
    55        0.0000000000
    56        0.0000000000
    57        0.0000000000
    58        0.0004600000
    59        0.0000000000
    60        0.0000000000
    61        0.0000800000
    62        0.0000000000
    63       -0.0000100000
    64        0.0000000000
    65        0.0000000000
    66        0.0000000000
    67        0.0000000000
    68        0.0000000000
    69       -0.0005800000
    70        0.0012200000
    71       -0.0006000000
    72        0.0000500000
    73        0.0000300000
    74        0.0000000000
    75       -0.0003200000
    76       -0.0001500000
    77        0.0000000000
    78       -0.0002400000
    79        0.0001000000
    80        0.0000000000
    81        0.0000200000
    82        0.0000000000
    83       -0.0000300000
    84        0.0000100000
    85        0.0000000000
    86        0.0000000000
    87       -0.0006100000
    88       -0.0003100000
    89       -0.0001900000
    90        0.0000900000
    91        0.0000000000
    92        0.0000000000
    93        0.0000700000
    94        0.0000600000
    95        0.0000000000
    96        0.0000600000
    97        0.0000400000
    98        0.0000000000
    99        0.0000600000
   100        0.0000200000
   101        0.0000000000
   102        0.0000000000
   103        0.4357200000
   104        0.6345300000
   105        0.0860100000
   106       -0.0942600000
   107        0.0052500000
   108        0.0000500000
   109       -0.0016100000
   110        0.0000000000
   111        0.0000400000
   112        0.0018900000
   113        0.0000000000
   114       -0.0000300000
   115       -0.0002600000
   116        0.0000000000
   117       -0.0042300000
   118       -0.0039800000
   119       -0.0042000000
   120        0.0000000000
   121        0.0000000000
   122        0.0000000000
   123        0.0204800000
   124        0.0195700000
   125        0.0204200000
   126        0.0000000000
   127        0.0000000000
   128        0.0000000000
   129       -0.0000300000
   130        0.0004000000
   131        0.0000000000
   132       -0.0000100000
   133        0.0001100000
   134        0.0000000000
   135       -0.0000100000
   136        0.0001100000
   137        0.0000000000
   138        0.0000000000
   139        0.0000000000
   140        0.0000000000
   141       -0.0002600000
   142        0.0006400000
   143       -0.0009300000
   144       -0.0000300000
   145        0.0000000000
   146        0.0000000000
   147        0.0002300000
   148        0.0001300000
   149        0.0000000000
   150        0.0004600000
   151        0.0003200000
   152        0.0000000000
   153        0.0000200000
   154        0.0000100000
   155       -0.0000300000
   156        0.0000000000
   157        0.0000000000
   158        0.0000000000
   159       -0.0002400000
   160       -0.0002400000
   161       -0.0000400000
   162       -0.0000300000
   163        0.0000000000
   164        0.0000000000
   165       -0.0000600000
   166        0.0000300000
   167        0.0000000000
   168       -0.0000200000
   169        0.0000000000
   170        0.0000000000
   171       -0.0000500000
   172        0.0000100000
   173        0.0000000000
   174        0.0000000000
 Sym=            2
 Ene=   -14.3461500000000     
 Spin= Alpha
 Occup=    2.000000    
     1        0.0000000000
     2        0.0001700000
     3       -0.0006200000
     4       -0.0000100000
     5       -0.0000300000
     6        0.0000000000
     7       -0.0000200000
     8        0.0001800000
     9       -0.0005100000
    10        0.0000300000
    11        0.0000400000
    12        0.0000000000
    13       -0.0000100000
    14       -0.0000400000
    15       -0.0001000000
    16       -0.0000100000
    17        0.0000000000
    18        0.0000000000
    19        0.0000000000
    20        0.0000000000
    21        0.0000400000
    22        0.0000000000
    23        0.0000000000
    24        0.0000100000
    25        0.0000000000
    26        0.0000000000
    27        0.0000400000
    28        0.0000000000
    29        0.0000000000
    30       -0.0000100000
    31        0.0000100000
    32       -0.0000200000
    33        0.0010200000
    34       -0.0013300000
    35       -0.0021500000
    36        0.0000000000
    37        0.0000300000
    38        0.0000000000
    39       -0.0000400000
    40       -0.0002100000
    41        0.0000000000
    42       -0.0009100000
    43        0.0009200000
    44        0.0000000000
    45       -0.0000600000
    46       -0.0000200000
    47        0.0000300000
    48        0.0000500000
    49        0.0000000000
    50        0.0000000000
    51        0.0005400000
    52        0.0007100000
    53        0.0005100000
    54        0.0002300000
    55        0.0000000000
    56        0.0000000000
    57       -0.0001300000
    58        0.0001100000
    59        0.0000000000
    60       -0.0000600000
    61        0.0001300000
    62        0.0000000000
    63       -0.0000200000
    64        0.0000400000
    65        0.0000000000
    66        0.0000000000
    67        0.0000000000
    68        0.0000000000
    69       -0.0000200000
    70       -0.0002800000
    71        0.0003200000
    72        0.0000100000
    73        0.0000000000
    74        0.0000000000
    75       -0.0003100000
    76       -0.0001200000
    77        0.0000000000
    78        0.0001100000
    79       -0.0000100000
    80        0.0000000000
    81        0.0000100000
    82        0.0000100000
    83        0.0000000000
    84        0.0000100000
    85        0.0000000000
    86        0.0000000000
    87       -0.0000800000
    88       -0.0000100000
    89        0.0000000000
    90       -0.0000800000
    91        0.0000000000
    92        0.0000000000
    93        0.0000100000
    94        0.0000100000
    95        0.0000000000
    96        0.0000000000
    97        0.0000100000
    98        0.0000000000
    99        0.0000000000
   100        0.0000000000
   101        0.0000000000
   102        0.0000000000
   103        0.0000000000
   104        0.0000000000
   105       -0.0000600000
   106        0.0000700000
   107       -0.0004100000
   108        0.0000100000
   109       -0.0000200000
   110        0.0000000000
   111       -0.0001900000
   112        0.0001900000
   113        0.0000000000
   114        0.0001700000
   115        0.0000700000
   116        0.0000000000
   117        0.0000000000
   118        0.0000100000
   119        0.0000000000
   120        0.0000000000
   121        0.0000000000
   122        0.0000000000
   123       -0.0000400000
   124       -0.0000700000
   125       -0.0000200000
   126        0.0000200000
   127        0.0000000000
   128        0.0000000000
   129        0.0000500000
   130       -0.0000400000
   131        0.0000000000
   132        0.0000200000
   133       -0.0000100000
   134        0.0000000000
   135        0.0000200000
   136       -0.0000200000
   137        0.0000000000
   138        0.0000000000
   139        0.4490700000
   140        0.6206900000
   141        0.0929900000
   142       -0.0996700000
   143        0.0080100000
   144        0.0000300000
   145       -0.0000800000
   146        0.0000000000
   147        0.0001700000
   148       -0.0000600000
   149        0.0000000000
   150       -0.0006100000
   151        0.0002200000
   152        0.0000000000
   153       -0.0054200000
   154       -0.0054100000
   155       -0.0057200000
   156       -0.0000100000
   157        0.0000000000
   158        0.0000000000
   159        0.0219200000
   160        0.0217800000
   161        0.0218300000
   162       -0.0001300000
   163        0.0000000000
   164        0.0000000000
   165       -0.0001400000
   166       -0.0000400000
   167        0.0000000000
   168       -0.0000700000
   169        0.0002700000
   170        0.0000000000
   171       -0.0000600000
   172        0.0000400000
   173        0.0000000000
   174        0.0000000000
 Sym=            3
 Ene=   -10.2832400000000     
 Spin= Alpha
 Occup=    2.000000    
     1       -0.0000400000
     2        0.0000600000
     3        0.0000000000
     4        0.0000300000
     5       -0.0000100000
     6        0.0000000000
     7       -0.0000300000
     8       -0.0002500000
     9       -0.0000200000
    10        0.0000700000
    11        0.0000400000
    12        0.0000000000
    13       -0.0000100000
    14        0.0000900000
    15       -0.0002100000
    16        0.0000300000
    17        0.0000000000
    18        0.0000000000
    19       -0.0000200000
    20       -0.0000100000
    21       -0.0002200000
    22        0.0000100000
    23        0.0000000000
    24        0.0000100000
    25       -0.0000200000
    26       -0.0000100000
    27       -0.0002200000
    28        0.0000100000
    29        0.0000000000
    30       -0.0000100000
    31        0.4678000000
    32        0.6016400000
    33        0.0927300000
    34       -0.0916300000
    35        0.0046400000
    36        0.0005000000
    37       -0.0002200000
    38        0.0000000000
    39       -0.0000300000
    40       -0.0006200000
    41        0.0000000000
    42       -0.0016600000
    43       -0.0011600000
    44        0.0000000000
    45       -0.0073000000
    46       -0.0072500000
    47       -0.0076700000
    48       -0.0000400000
    49        0.0000000000
    50        0.0000000000
    51        0.0202100000
    52        0.0195900000
    53        0.0197300000
    54        0.0000600000
    55        0.0000000000
    56        0.0000000000
    57       -0.0002200000
    58        0.0001500000
    59        0.0000000000
    60       -0.0001200000
    61       -0.0004600000
    62        0.0000000000
    63       -0.0000800000
    64       -0.0000100000
    65        0.0000000000
    66        0.0000000000
    67        0.0005700000
    68        0.0007100000
    69        0.0007600000
    70       -0.0013400000
    71       -0.0018200000
    72        0.0000000000
    73        0.0000100000
    74        0.0000000000
    75       -0.0001400000
    76       -0.0002300000
    77        0.0000000000
    78       -0.0007600000
    79       -0.0005300000
    80        0.0000000000
    81       -0.0000900000
    82       -0.0000500000
    83       -0.0000200000
    84       -0.0000600000
    85        0.0000000000
    86        0.0000000000
    87        0.0001600000
    88        0.0002400000
    89        0.0004600000
    90       -0.0002100000
    91        0.0000000000
    92        0.0000000000
    93       -0.0000900000
    94       -0.0000300000
    95        0.0000000000
    96       -0.0000700000
    97       -0.0000800000
    98        0.0000000000
    99       -0.0000500000
   100       -0.0000300000
   101        0.0000000000
   102        0.0000000000
   103       -0.0000800000
   104       -0.0001500000
   105       -0.0008000000
   106        0.0016900000
   107        0.0019700000
   108        0.0000100000
   109       -0.0000600000
   110        0.0000000000
   111       -0.0001200000
   112       -0.0003400000
   113        0.0000000000
   114        0.0003000000
   115       -0.0007400000
   116        0.0000000000
   117       -0.0000700000
   118       -0.0000100000
   119       -0.0000700000
   120        0.0000000000
   121        0.0000000000
   122        0.0000000000
   123       -0.0006300000
   124       -0.0000800000
   125       -0.0006300000
   126       -0.0000300000
   127        0.0000000000
   128        0.0000000000
   129        0.0000300000
   130       -0.0003300000
   131        0.0000000000
   132        0.0000300000
   133        0.0001200000
   134        0.0000000000
   135        0.0000200000
   136        0.0001500000
   137        0.0000000000
   138        0.0000000000
   139       -0.0000500000
   140       -0.0000900000
   141       -0.0002700000
   142        0.0004600000
   143        0.0011000000
   144       -0.0000700000
   145        0.0000500000
   146        0.0000000000
   147        0.0004900000
   148       -0.0003900000
   149        0.0000000000
   150       -0.0002800000
   151        0.0007100000
   152        0.0000000000
   153       -0.0000400000
   154       -0.0000400000
   155       -0.0000300000
   156       -0.0000100000
   157        0.0000000000
   158        0.0000000000
   159       -0.0002200000
   160       -0.0002100000
   161       -0.0002300000
   162        0.0001800000
   163        0.0000000000
   164        0.0000000000
   165       -0.0000800000
   166        0.0000800000
   167        0.0000000000
   168       -0.0000500000
   169        0.0000900000
   170        0.0000000000
   171       -0.0000200000
   172        0.0000200000
   173        0.0000000000
   174        0.0000000000
 Sym=            4
 Ene=   -10.1849000000000     
 Spin= Alpha
 Occup=    2.000000    
     1       -0.0000100000
     2       -0.0001000000
     3       -0.0002300000
     4        0.0000200000
     5       -0.0000200000
     6        0.0000000000
     7       -0.0000100000
     8       -0.0001200000
     9       -0.0000800000
    10        0.0000300000
    11        0.0000200000
    12        0.0000000000
    13       -0.0000500000
    14        0.0003700000
    15       -0.0013900000
    16        0.0000000000
    17        0.0000000000
    18        0.0000000000
    19       -0.0000500000
    20        0.0002300000
    21       -0.0014900000
    22       -0.0000100000
    23       -0.0000300000
    24        0.0000200000
    25       -0.0000500000
    26        0.0002300000
    27       -0.0014900000
    28       -0.0000100000
    29       -0.0000300000
    30       -0.0000200000
    31       -0.0006100000
    32       -0.0007900000
    33        0.0008100000
    34       -0.0020700000
    35       -0.0034000000
    36       -0.0000500000
    37       -0.0000400000
    38        0.0000000000
    39        0.0008300000
    40        0.0003600000
    41        0.0000000000
    42        0.0013000000
    43        0.0004900000
    44        0.0000000000
    45       -0.0000200000
    46        0.0000000000
    47        0.0000300000
    48       -0.0000400000
    49        0.0000000000
    50        0.0000000000
    51        0.0002400000
    52        0.0003700000
    53        0.0006400000
    54       -0.0005300000
    55        0.0000000000
    56        0.0000000000
    57        0.0001000000
    58        0.0000000000
    59        0.0000000000
    60        0.0000400000
    61        0.0000200000
    62        0.0000000000
    63       -0.0000400000
    64       -0.0000100000
    65        0.0000000000
    66        0.0000000000
    67        0.4677200000
    68        0.6013300000
    69        0.0938800000
    70       -0.0915000000
    71        0.0116100000
    72        0.0000900000
    73       -0.0001100000
    74        0.0000000000
    75        0.0009300000
    76        0.0005300000
    77        0.0000000000
    78        0.0008000000
    79        0.0004200000
    80        0.0000000000
    81       -0.0075500000
    82       -0.0075200000
    83       -0.0075400000
    84       -0.0000300000
    85        0.0000000000
    86        0.0000000000
    87        0.0199800000
    88        0.0196500000
    89        0.0195000000
    90        0.0004600000
    91        0.0000000000
    92        0.0000000000
    93       -0.0000100000
    94        0.0000000000
    95        0.0000000000
    96       -0.0000300000
    97        0.0003800000
    98        0.0000000000
    99       -0.0000900000
   100       -0.0003200000
   101        0.0000000000
   102        0.0000000000
   103        0.0000000000
   104        0.0000000000
   105        0.0000700000
   106       -0.0002000000
   107        0.0003700000
   108       -0.0000100000
   109        0.0000100000
   110        0.0000000000
   111        0.0001100000
   112       -0.0001300000
   113        0.0000000000
   114       -0.0001000000
   115       -0.0000500000
   116        0.0000000000
   117        0.0000000000
   118        0.0000000000
   119        0.0000100000
   120        0.0000000000
   121        0.0000000000
   122        0.0000000000
   123        0.0000400000
   124        0.0000800000
   125        0.0000000000
   126       -0.0000200000
   127        0.0000000000
   128        0.0000000000
   129       -0.0000200000
   130        0.0000300000
   131        0.0000000000
   132        0.0000000000
   133        0.0000100000
   134        0.0000000000
   135       -0.0000100000
   136        0.0000200000
   137        0.0000000000
   138        0.0000000000
   139        0.0000000000
   140        0.0000000000
   141        0.0002200000
   142       -0.0006300000
   143       -0.0000100000
   144        0.0000100000
   145        0.0000000000
   146        0.0000000000
   147        0.0000400000
   148       -0.0000600000
   149        0.0000000000
   150        0.0002300000
   151       -0.0001400000
   152        0.0000000000
   153        0.0000000000
   154        0.0000000000
   155        0.0000200000
   156        0.0000000000
   157        0.0000000000
   158        0.0000000000
   159        0.0001400000
   160        0.0001800000
   161        0.0000900000
   162        0.0000900000
   163        0.0000000000
   164        0.0000000000
   165        0.0000500000
   166       -0.0000100000
   167        0.0000000000
   168        0.0000200000
   169        0.0000000000
   170        0.0000000000
   171        0.0000200000
   172       -0.0000100000
   173        0.0000000000
   174        0.0000000000
 Sym=            5
 Ene=   -1.03241000000000     
 Spin= Alpha
 Occup=    2.000000    
     1        0.0177000000
     2        0.0122200000
     3        0.0000800000
     4       -0.0006500000
     5        0.0031800000
     6        0.0000000000
     7        0.0218100000
     8        0.0190600000
     9        0.0002400000
    10       -0.0041300000
    11       -0.0015300000
    12        0.0000000000
    13        0.0060100000
    14        0.0054700000
    15        0.0013300000
    16        0.0011500000
    17       -0.0003400000
    18        0.0000000000
    19        0.0043000000
    20        0.0046400000
    21        0.0008600000
    22        0.0007300000
    23        0.0007600000
    24       -0.0005200000
    25        0.0043000000
    26        0.0046400000
    27        0.0008600000
    28        0.0007300000
    29        0.0007600000
    30        0.0005200000
    31       -0.0636100000
    32       -0.1299600000
    33        0.2204600000
    34        0.1371800000
    35        0.0164400000
    36        0.0232000000
    37        0.1074600000
    38        0.0000000000
    39       -0.0009200000
    40        0.0407000000
    41        0.0000000000
    42        0.0053400000
    43        0.0081200000
    44        0.0000000000
    45       -0.0005000000
    46        0.0234300000
    47       -0.0076900000
    48       -0.0021100000
    49        0.0000000000
    50        0.0000000000
    51        0.0085300000
    52        0.0243600000
    53       -0.0018300000
    54        0.0023400000
    55        0.0000000000
    56        0.0000000000
    57        0.0015000000
    58        0.0106600000
    59        0.0000000000
    60        0.0008500000
    61       -0.0091400000
    62        0.0000000000
    63       -0.0002400000
    64       -0.0027900000
    65        0.0000000000
    66        0.0000000000
    67       -0.0104900000
    68       -0.0215300000
    69        0.0299200000
    70        0.0243500000
    71        0.0036300000
    72        0.0149900000
    73        0.0130000000
    74        0.0000000000
    75       -0.0003900000
    76        0.0027900000
    77        0.0000000000
    78        0.0019500000
    79        0.0009200000
    80        0.0000000000
    81        0.0007500000
    82        0.0005900000
    83       -0.0007900000
    84        0.0012600000
    85        0.0000000000
    86        0.0000000000
    87       -0.0041600000
    88       -0.0008800000
    89       -0.0018200000
    90       -0.0004100000
    91        0.0000000000
    92        0.0000000000
    93        0.0006100000
    94        0.0010800000
    95        0.0000000000
    96        0.0004300000
    97       -0.0000500000
    98        0.0000000000
    99        0.0000100000
   100       -0.0006200000
   101        0.0000000000
   102        0.0000000000
   103       -0.0810500000
   104       -0.1873600000
   105        0.2842700000
   106        0.3113000000
   107        0.0964700000
   108        0.0034900000
   109       -0.1137200000
   110        0.0000000000
   111        0.0037300000
   112       -0.0702600000
   113        0.0000000000
   114       -0.0000200000
   115       -0.0072900000
   116        0.0000000000
   117        0.0001100000
   118        0.0105800000
   119        0.0007400000
   120       -0.0002600000
   121        0.0000000000
   122        0.0000000000
   123        0.0017500000
   124        0.0185200000
   125        0.0033400000
   126       -0.0010800000
   127        0.0000000000
   128        0.0000000000
   129       -0.0002800000
   130       -0.0051300000
   131        0.0000000000
   132        0.0002000000
   133        0.0000800000
   134        0.0000000000
   135       -0.0001500000
   136        0.0001200000
   137        0.0000000000
   138        0.0000000000
   139       -0.0305900000
   140       -0.0673300000
   141        0.0991300000
   142        0.1148200000
   143        0.0216400000
   144       -0.0219800000
   145        0.0230000000
   146        0.0000000000
   147       -0.0183700000
   148        0.0188300000
   149        0.0000000000
   150       -0.0014900000
   151       -0.0024100000
   152        0.0000000000
   153        0.0026100000
   154        0.0025900000
   155       -0.0012700000
   156       -0.0014100000
   157        0.0000000000
   158        0.0000000000
   159        0.0018900000
   160        0.0046200000
   161       -0.0038500000
   162       -0.0043000000
   163        0.0000000000
   164        0.0000000000
   165        0.0011700000
   166       -0.0009700000
   167        0.0000000000
   168       -0.0003500000
   169        0.0011200000
   170        0.0000000000
   171        0.0009800000
   172       -0.0008600000
   173        0.0000000000
   174        0.0000000000
 Sym=            6
 Ene=  -0.909690000000000     
 Spin= Alpha
 Occup=    2.000000    
     1        0.0785300000
     2        0.0707600000
     3        0.0020100000
     4       -0.0010800000
     5        0.0142600000
     6        0.0000000000
     7        0.0714700000
     8        0.0616600000
     9        0.0034300000
    10       -0.0110900000
    11       -0.0064900000
    12        0.0000000000
    13        0.0013100000
    14        0.0006800000
    15        0.0026500000
    16        0.0001500000
    17       -0.0002300000
    18        0.0000000000
    19        0.0068800000
    20        0.0071500000